[ 
  {"element_name":"Hydrogen","symbol":"H","atomic_number":1,"atomic_mass":1.008,"ion_charge":"+1","electronegativity":2.20,"electron_affinity":72.8,"first_ionization_energy":1312.0,"atomic_radius":53,"group":1,"period":1,"block":"s"},
  {"element_name":"Helium","symbol":"He","atomic_number":2,"atomic_mass":4.002602,"ion_charge":"0","electronegativity":null,"electron_affinity":null,"first_ionization_energy":2372.3,"atomic_radius":31,"group":18,"period":1,"block":"s"},
  
  {"element_name":"Lithium","symbol":"Li","atomic_number":3,"atomic_mass":6.94,"ion_charge":"+1","electronegativity":0.98,"electron_affinity":59.6,"first_ionization_energy":520.2,"atomic_radius":167,"group":1,"period":2,"block":"s"},
  {"element_name":"Beryllium","symbol":"Be","atomic_number":4,"atomic_mass":9.0121831,"ion_charge":"+2","electronegativity":1.57,"electron_affinity":-48.0,"first_ionization_energy":899.5,"atomic_radius":112,"group":2,"period":2,"block":"s"},
  {"element_name":"Boron","symbol":"B","atomic_number":5,"atomic_mass":10.81,"ion_charge":"+3","electronegativity":2.04,"electron_affinity":26.7,"first_ionization_energy":800.6,"atomic_radius":87,"group":13,"period":2,"block":"p"},
  {"element_name":"Carbon","symbol":"C","atomic_number":6,"atomic_mass":12.011,"ion_charge":"0","electronegativity":2.55,"electron_affinity":122.3,"first_ionization_energy":1086.5,"atomic_radius":67,"group":14,"period":2,"block":"p"},
  {"element_name":"Nitrogen","symbol":"N","atomic_number":7,"atomic_mass":14.007,"ion_charge":"0","electronegativity":3.04,"electron_affinity":7.0,"first_ionization_energy":1402.3,"atomic_radius":56,"group":15,"period":2,"block":"p"},
  {"element_name":"Oxygen","symbol":"O","atomic_number":8,"atomic_mass":15.999,"ion_charge":"-2","electronegativity":3.44,"electron_affinity":140.98,"first_ionization_energy":1313.9,"atomic_radius":48,"group":16,"period":2,"block":"p"},
  {"element_name":"Fluorine","symbol":"F","atomic_number":9,"atomic_mass":18.998403163,"ion_charge":"-1","electronegativity":3.98,"electron_affinity":328.2,"first_ionization_energy":1681.0,"atomic_radius":42,"group":17,"period":2,"block":"p"},
  {"element_name":"Neon","symbol":"Ne","atomic_number":10,"atomic_mass":20.1797,"ion_charge":"0","electronegativity":null,"electron_affinity":null,"first_ionization_energy":2080.7,"atomic_radius":38,"group":18,"period":2,"block":"p"}, 

  {"element_name":"Sodium","symbol":"Na","atomic_number":11,"atomic_mass":22.98976928,"ion_charge":"+1","electronegativity":0.93,"electron_affinity":52.9,"first_ionization_energy":495.8,"atomic_radius":190,"group":1,"period":3,"block":"s"},
  {"element_name":"Magnesium","symbol":"Mg","atomic_number":12,"atomic_mass":24.305,"ion_charge":"+2","electronegativity":1.31,"electron_affinity":0.0,"first_ionization_energy":737.7,"atomic_radius":145,"group":2,"period":3,"block":"s"},
  {"element_name":"Aluminium","symbol":"Al","atomic_number":13,"atomic_mass":26.9815385,"ion_charge":"+3","electronegativity":1.61,"electron_affinity":41.8,"first_ionization_energy":577.5,"atomic_radius":118,"group":13,"period":3,"block":"p"},
  {"element_name":"Silicon","symbol":"Si","atomic_number":14,"atomic_mass":28.085,"ion_charge":"0","electronegativity":1.90,"electron_affinity":134.1,"first_ionization_energy":786.5,"atomic_radius":111,"group":14,"period":3,"block":"p"},
  {"element_name":"Phosphorus","symbol":"P","atomic_number":15,"atomic_mass":30.973761998,"ion_charge":"-3","electronegativity":2.19,"electron_affinity":72.0,"first_ionization_energy":1012.0,"atomic_radius":98,"group":15,"period":3,"block":"p"},
  {"element_name":"Sulfur","symbol":"S","atomic_number":16,"atomic_mass":32.06,"ion_charge":"-2","electronegativity":2.58,"electron_affinity":200.4,"first_ionization_energy":999.6,"atomic_radius":88,"group":16,"period":3,"block":"p"},
  {"element_name":"Chlorine","symbol":"Cl","atomic_number":17,"atomic_mass":35.45,"ion_charge":"-1","electronegativity":3.16,"electron_affinity":349.0,"first_ionization_energy":1251.2,"atomic_radius":79,"group":17,"period":3,"block":"p"},
  {"element_name":"Argon","symbol":"Ar","atomic_number":18,"atomic_mass":39.948,"ion_charge":"0","electronegativity":null,"electron_affinity":null,"first_ionization_energy":1520.6,"atomic_radius":71,"group":18,"period":3,"block":"p"},
  
  {"element_name":"Potassium","symbol":"K","atomic_number":19,"atomic_mass":39.0983,"ion_charge":"+1","electronegativity":0.82,"electron_affinity":48.4,"first_ionization_energy":418.8,"atomic_radius":243,"group":1,"period":4,"block":"s"},
  {"element_name":"Calcium","symbol":"Ca","atomic_number":20,"atomic_mass":40.078,"ion_charge":"+2","electronegativity":1.00,"electron_affinity":2.37,"first_ionization_energy":589.8,"atomic_radius":194,"group":2,"period":4,"block":"s"},
  {"element_name":"Scandium","symbol":"Sc","atomic_number":21,"atomic_mass":44.955908,"ion_charge":"+3","electronegativity":1.36,"electron_affinity":18.0,"first_ionization_energy":633.1,"atomic_radius":184,"group":3,"period":4,"block":"d"},
  {"element_name":"Titanium","symbol":"Ti","atomic_number":22,"atomic_mass":47.867,"ion_charge":"+4","electronegativity":1.54,"electron_affinity":7.6,"first_ionization_energy":658.8,"atomic_radius":176,"group":4,"period":4,"block":"d"},
  {"element_name":"Vanadium","symbol":"V","atomic_number":23,"atomic_mass":50.9415,"ion_charge":"+2","electronegativity":1.63,"electron_affinity":50.6,"first_ionization_energy":650.9,"atomic_radius":171,"group":5,"period":4,"block":"d"},
  {"element_name":"Chromium","symbol":"Cr","atomic_number":24,"atomic_mass":51.9961,"ion_charge":"+3","electronegativity":1.66,"electron_affinity":65.2,"first_ionization_energy":652.9,"atomic_radius":166,"group":6,"period":4,"block":"d"},
  {"element_name":"Manganese","symbol":"Mn","atomic_number":25,"atomic_mass":54.938044,"ion_charge":"+2","electronegativity":1.55,"electron_affinity":55.6,"first_ionization_energy":717.3,"atomic_radius":161,"group":7,"period":4,"block":"d"},
  {"element_name":"Iron","symbol":"Fe","atomic_number":26,"atomic_mass":55.845,"ion_charge":"+2","electronegativity":1.83,"electron_affinity":15.7,"first_ionization_energy":762.5,"atomic_radius":156,"group":8,"period":4,"block":"d"},
  {"element_name":"Cobalt","symbol":"Co","atomic_number":27,"atomic_mass":58.933194,"ion_charge":"+2","electronegativity":1.88,"electron_affinity":63.0,"first_ionization_energy":760.4,"atomic_radius":152,"group":9,"period":4,"block":"d"},
  {"element_name":"Nickel","symbol":"Ni","atomic_number":28,"atomic_mass":58.6934,"ion_charge":"+2","electronegativity":1.91,"electron_affinity":111.6,"first_ionization_energy":737.1,"atomic_radius":149,"group":10,"period":4,"block":"d"},
  {"element_name":"Copper","symbol":"Cu","atomic_number":29,"atomic_mass":63.546,"ion_charge":"+2","electronegativity":1.90,"electron_affinity":119.2,"first_ionization_energy":745.5,"atomic_radius":145,"group":11,"period":4,"block":"d"},
  {"element_name":"Zinc","symbol":"Zn","atomic_number":30,"atomic_mass":65.38,"ion_charge":"+2","electronegativity":1.65,"electron_affinity":-58.0,"first_ionization_energy":906.4,"atomic_radius":142,"group":12,"period":4,"block":"d"},
  {"element_name":"Gallium","symbol":"Ga","atomic_number":31,"atomic_mass":69.723,"ion_charge":"+3","electronegativity":1.81,"electron_affinity":29.0,"first_ionization_energy":578.8,"atomic_radius":136,"group":13,"period":4,"block":"p"},
  {"element_name":"Germanium","symbol":"Ge","atomic_number":32,"atomic_mass":72.63,"ion_charge":"+4","electronegativity":2.01,"electron_affinity":119.2,"first_ionization_energy":762.0,"atomic_radius":125,"group":14,"period":4,"block":"p"},
  {"element_name":"Arsenic","symbol":"As","atomic_number":33,"atomic_mass":74.921595,"ion_charge":"-3","electronegativity":2.18,"electron_affinity":78.0,"first_ionization_energy":947.0,"atomic_radius":114,"group":15,"period":4,"block":"p"},
  {"element_name":"Selenium","symbol":"Se","atomic_number":34,"atomic_mass":78.971,"ion_charge":"-2","electronegativity":2.55,"electron_affinity":195.0,"first_ionization_energy":941.0,"atomic_radius":103,"group":16,"period":4,"block":"p"},
  {"element_name":"Bromine","symbol":"Br","atomic_number":35,"atomic_mass":79.904,"ion_charge":"-1","electronegativity":2.96,"electron_affinity":324.6,"first_ionization_energy":1139.9,"atomic_radius":94,"group":17,"period":4,"block":"p"},
  {"element_name":"Krypton","symbol":"Kr","atomic_number":36,"atomic_mass":83.798,"ion_charge":"0","electronegativity":null,"electron_affinity":0.0,"first_ionization_energy":1350.8,"atomic_radius":88,"group":18,"period":4,"block":"p"},

  {"element_name":"Rubidium","symbol":"Rb","atomic_number":37,"atomic_mass":85.4678,"ion_charge":"+1","electronegativity":0.82,"electron_affinity":46.9,"first_ionization_energy":403.0,"atomic_radius":265,"group":1,"period":5,"block":"s"},
  {"element_name":"Strontium","symbol":"Sr","atomic_number":38,"atomic_mass":87.62,"ion_charge":"+2","electronegativity":0.95,"electron_affinity":5.0,"first_ionization_energy":549.5,"atomic_radius":219,"group":2,"period":5,"block":"s"},
  {"element_name":"Yttrium","symbol":"Y","atomic_number":39,"atomic_mass":88.90584,"ion_charge":"+3","electronegativity":1.22,"electron_affinity":29.6,"first_ionization_energy":600.0,"atomic_radius":212,"group":3,"period":5,"block":"d"},
  {"element_name":"Zirconium","symbol":"Zr","atomic_number":40,"atomic_mass":91.224,"ion_charge":"+4","electronegativity":1.33,"electron_affinity":41.5,"first_ionization_energy":640.1,"atomic_radius":206,"group":4,"period":5,"block":"d"},
  {"element_name":"Niobium","symbol":"Nb","atomic_number":41,"atomic_mass":92.90637,"ion_charge":"+5","electronegativity":1.6,"electron_affinity":88.0,"first_ionization_energy":652.1,"atomic_radius":198,"group":5,"period":5,"block":"d"},
  {"element_name":"Molybdenum","symbol":"Mo","atomic_number":42,"atomic_mass":95.95,"ion_charge":"+6","electronegativity":2.16,"electron_affinity":72.0,"first_ionization_energy":684.3,"atomic_radius":190,"group":6,"period":5,"block":"d"},
  {"element_name":"Technetium","symbol":"Tc","atomic_number":43,"atomic_mass":98.0,"ion_charge":"+7","electronegativity":1.9,"electron_affinity":53.0,"first_ionization_energy":702.0,"atomic_radius":183,"group":7,"period":5,"block":"d"},
  {"element_name":"Ruthenium","symbol":"Ru","atomic_number":44,"atomic_mass":101.07,"ion_charge":"+3","electronegativity":2.2,"electron_affinity":100.0,"first_ionization_energy":710.2,"atomic_radius":178,"group":8,"period":5,"block":"d"},
  {"element_name":"Rhodium","symbol":"Rh","atomic_number":45,"atomic_mass":102.90550,"ion_charge":"+3","electronegativity":2.28,"electron_affinity":110.0,"first_ionization_energy":720.0,"atomic_radius":173,"group":9,"period":5,"block":"d"},
  {"element_name":"Palladium","symbol":"Pd","atomic_number":46,"atomic_mass":106.42,"ion_charge":"+2","electronegativity":2.20,"electron_affinity":54.0,"first_ionization_energy":804.4,"atomic_radius":169,"group":10,"period":5,"block":"d"},
  {"element_name":"Silver","symbol":"Ag","atomic_number":47,"atomic_mass":107.8682,"ion_charge":"+1","electronegativity":1.93,"electron_affinity":125.6,"first_ionization_energy":731.0,"atomic_radius":165,"group":11,"period":5,"block":"d"},
  {"element_name":"Cadmium","symbol":"Cd","atomic_number":48,"atomic_mass":112.414,"ion_charge":"+2","electronegativity":1.69,"electron_affinity":-68.0,"first_ionization_energy":867.8,"atomic_radius":161,"group":12,"period":5,"block":"d"},
  {"element_name":"Indium","symbol":"In","atomic_number":49,"atomic_mass":114.818,"ion_charge":"+3","electronegativity":1.78,"electron_affinity":28.0,"first_ionization_energy":558.3,"atomic_radius":156,"group":13,"period":5,"block":"p"},
  {"element_name":"Tin","symbol":"Sn","atomic_number":50,"atomic_mass":118.710,"ion_charge":"+4","electronegativity":1.96,"electron_affinity":107.3,"first_ionization_energy":709.3,"atomic_radius":145,"group":14,"period":5,"block":"p"},
  {"element_name":"Antimony","symbol":"Sb","atomic_number":51,"atomic_mass":121.760,"ion_charge":"-3","electronegativity":2.05,"electron_affinity":101.0,"first_ionization_energy":834.0,"atomic_radius":133,"group":15,"period":5,"block":"p"},
  {"element_name":"Tellurium","symbol":"Te","atomic_number":52,"atomic_mass":127.60,"ion_charge":"-2","electronegativity":2.1,"electron_affinity":190.0,"first_ionization_energy":869.0,"atomic_radius":123,"group":16,"period":5,"block":"p"},
  {"element_name":"Iodine","symbol":"I","atomic_number":53,"atomic_mass":126.90447,"ion_charge":"-1","electronegativity":2.66,"electron_affinity":295.2,"first_ionization_energy":1008.4,"atomic_radius":115,"group":17,"period":5,"block":"p"},
  {"element_name":"Xenon","symbol":"Xe","atomic_number":54,"atomic_mass":131.293,"ion_charge":"0","electronegativity":null,"electron_affinity":0.0,"first_ionization_energy":1170.4,"atomic_radius":108,"group":18,"period":5,"block":"p"},

  {"element_name":"Cesium","symbol":"Cs","atomic_number":55,"atomic_mass":132.90545196,"ion_charge":"+1","electronegativity":0.79,"electron_affinity":45.5,"first_ionization_energy":375.7,"atomic_radius":298,"group":1,"period":6,"block":"s"},
  {"element_name":"Barium","symbol":"Ba","atomic_number":56,"atomic_mass":137.327,"ion_charge":"+2","electronegativity":0.89,"electron_affinity":14.0,"first_ionization_energy":502.9,"atomic_radius":253,"group":2,"period":6,"block":"s"},
  {"element_name":"Lanthanum","symbol":"La","atomic_number":57,"atomic_mass":138.90547,"ion_charge":"+3","electronegativity":1.10,"electron_affinity":53.0,"first_ionization_energy":538.1,"atomic_radius":195,"group":3,"period":6,"block":"d"},
  {"element_name":"Cerium","symbol":"Ce","atomic_number":58,"atomic_mass":140.116,"ion_charge":"+3","electronegativity":1.12,"electron_affinity":50.0,"first_ionization_energy":534.4,"atomic_radius":185,"group":null,"period":6,"block":"f"},
  {"element_name":"Praseodymium","symbol":"Pr","atomic_number":59,"atomic_mass":140.90766,"ion_charge":"+3","electronegativity":1.13,"electron_affinity":50.0,"first_ionization_energy":527.0,"atomic_radius":185,"group":null,"period":6,"block":"f"},
  {"element_name":"Neodymium","symbol":"Nd","atomic_number":60,"atomic_mass":144.242,"ion_charge":"+3","electronegativity":1.14,"electron_affinity":50.0,"first_ionization_energy":533.1,"atomic_radius":182,"group":null,"period":6,"block":"f"},
  {"element_name":"Promethium","symbol":"Pm","atomic_number":61,"atomic_mass":145.0,"ion_charge":"+3","electronegativity":1.13,"electron_affinity":50.0,"first_ionization_energy":540.0,"atomic_radius":183,"group":null,"period":6,"block":"f"},
  {"element_name":"Samarium","symbol":"Sm","atomic_number":62,"atomic_mass":150.36,"ion_charge":"+3","electronegativity":1.17,"electron_affinity":50.0,"first_ionization_energy":544.5,"atomic_radius":180,"group":null,"period":6,"block":"f"},
  {"element_name":"Europium","symbol":"Eu","atomic_number":63,"atomic_mass":151.964,"ion_charge":"+2","electronegativity":0.89,"electron_affinity":50.0,"first_ionization_energy":547.1,"atomic_radius":180,"group":null,"period":6,"block":"f"},
  {"element_name":"Gadolinium","symbol":"Gd","atomic_number":64,"atomic_mass":157.25,"ion_charge":"+3","electronegativity":1.20,"electron_affinity":50.0,"first_ionization_energy":593.4,"atomic_radius":180,"group":null,"period":6,"block":"f"},
  {"element_name":"Terbium","symbol":"Tb","atomic_number":65,"atomic_mass":158.92535,"ion_charge":"+3","electronegativity":1.20,"electron_affinity":50.0,"first_ionization_energy":565.0,"atomic_radius":175,"group":null,"period":6,"block":"f"},
  {"element_name":"Dysprosium","symbol":"Dy","atomic_number":66,"atomic_mass":162.5,"ion_charge":"+3","electronegativity":1.22,"electron_affinity":50.0,"first_ionization_energy":573.0,"atomic_radius":178,"group":null,"period":6,"block":"f"},
  {"element_name":"Holmium","symbol":"Ho","atomic_number":67,"atomic_mass":164.93033,"ion_charge":"+3","electronegativity":1.23,"electron_affinity":50.0,"first_ionization_energy":581.0,"atomic_radius":176,"group":null,"period":6,"block":"f"},
  {"element_name":"Erbium","symbol":"Er","atomic_number":68,"atomic_mass":167.259,"ion_charge":"+3","electronegativity":1.24,"electron_affinity":50.0,"first_ionization_energy":589.3,"atomic_radius":175,"group":null,"period":6,"block":"f"},
  {"element_name":"Thulium","symbol":"Tm","atomic_number":69,"atomic_mass":168.93422,"ion_charge":"+3","electronegativity":1.25,"electron_affinity":50.0,"first_ionization_energy":597.4,"atomic_radius":173,"group":null,"period":6,"block":"f"},
  {"element_name":"Ytterbium","symbol":"Yb","atomic_number":70,"atomic_mass":173.04,"ion_charge":"+2","electronegativity":1.10,"electron_affinity":50.0,"first_ionization_energy":603.4,"atomic_radius":169,"group":null,"period":6,"block":"f"},
  {"element_name":"Lutetium","symbol":"Lu","atomic_number":71,"atomic_mass":174.9668,"ion_charge":"+3","electronegativity":1.27,"electron_affinity":50.0,"first_ionization_energy":523.5,"atomic_radius":172,"group":3,"period":6,"block":"d"},
  {"element_name":"Hafnium","symbol":"Hf","atomic_number":72,"atomic_mass":178.49,"ion_charge":"+4","electronegativity":1.3,"electron_affinity":0.0,"first_ionization_energy":658.5,"atomic_radius":159,"group":4,"period":6,"block":"d"},
  {"element_name":"Tantalum","symbol":"Ta","atomic_number":73,"atomic_mass":180.94788,"ion_charge":"+5","electronegativity":1.5,"electron_affinity":31.0,"first_ionization_energy":761.0,"atomic_radius":146,"group":5,"period":6,"block":"d"},
  {"element_name":"Tungsten","symbol":"W","atomic_number":74,"atomic_mass":183.84,"ion_charge":"+6","electronegativity":2.36,"electron_affinity":78.0,"first_ionization_energy":770.0,"atomic_radius":139,"group":6,"period":6,"block":"d"},
  {"element_name":"Rhenium","symbol":"Re","atomic_number":75,"atomic_mass":186.207,"ion_charge":"+7","electronegativity":1.9,"electron_affinity":50.0,"first_ionization_energy":760.0,"atomic_radius":137,"group":7,"period":6,"block":"d"},
  {"element_name":"Osmium","symbol":"Os","atomic_number":76,"atomic_mass":190.23,"ion_charge":"+4","electronegativity":2.2,"electron_affinity":106.0,"first_ionization_energy":840.0,"atomic_radius":135,"group":8,"period":6,"block":"d"},
  {"element_name":"Iridium","symbol":"Ir","atomic_number":77,"atomic_mass":192.217,"ion_charge":"+3","electronegativity":2.20,"electron_affinity":151.0,"first_ionization_energy":880.0,"atomic_radius":135,"group":9,"period":6,"block":"d"},
  {"element_name":"Platinum","symbol":"Pt","atomic_number":78,"atomic_mass":195.084,"ion_charge":"+4","electronegativity":2.28,"electron_affinity":205.0,"first_ionization_energy":870.0,"atomic_radius":139,"group":10,"period":6,"block":"d"},
  {"element_name":"Gold","symbol":"Au","atomic_number":79,"atomic_mass":196.966569,"ion_charge":"+3","electronegativity":2.54,"electron_affinity":222.8,"first_ionization_energy":890.1,"atomic_radius":144,"group":11,"period":6,"block":"d"},
  {"element_name":"Mercury","symbol":"Hg","atomic_number":80,"atomic_mass":200.592,"ion_charge":"+2","electronegativity":2.00,"electron_affinity":0.0,"first_ionization_energy":1007.1,"atomic_radius":151,"group":12,"period":6,"block":"d"},
  {"element_name":"Thallium","symbol":"Tl","atomic_number":81,"atomic_mass":204.38,"ion_charge":"+3","electronegativity":1.62,"electron_affinity":35.0,"first_ionization_energy":589.4,"atomic_radius":148,"group":13,"period":6,"block":"p"},
  {"element_name":"Lead","symbol":"Pb","atomic_number":82,"atomic_mass":207.2,"ion_charge":"+4","electronegativity":2.33,"electron_affinity":35.0,"first_ionization_energy":715.6,"atomic_radius":154,"group":14,"period":6,"block":"p"},
  {"element_name":"Bismuth","symbol":"Bi","atomic_number":83,"atomic_mass":208.9804,"ion_charge":"+3","electronegativity":2.02,"electron_affinity":90.6,"first_ionization_energy":703.0,"atomic_radius":143,"group":15,"period":6,"block":"p"},
  {"element_name":"Polonium","symbol":"Po","atomic_number":84,"atomic_mass":209.0,"ion_charge":"-2","electronegativity":2.0,"electron_affinity":190.0,"first_ionization_energy":812.1,"atomic_radius":135,"group":16,"period":6,"block":"p"},
  {"element_name":"Astatine","symbol":"At","atomic_number":85,"atomic_mass":210.0,"ion_charge":"-1","electronegativity":2.2,"electron_affinity":270.0,"first_ionization_energy":920.0,"atomic_radius":127,"group":17,"period":6,"block":"p"},
  {"element_name":"Radon","symbol":"Rn","atomic_number":86,"atomic_mass":222.0,"ion_charge":"0","electronegativity":null,"electron_affinity":0.0,"first_ionization_energy":1037.0,"atomic_radius":120,"group":18,"period":6,"block":"p"},

  {"element_name":"Francium","symbol":"Fr","atomic_number":87,"atomic_mass":223.0,"ion_charge":"+1","electronegativity":0.7,"electron_affinity":40.0,"first_ionization_energy":380.0,"atomic_radius":298,"group":1,"period":7,"block":"s"},
  {"element_name":"Radium","symbol":"Ra","atomic_number":88,"atomic_mass":226.0,"ion_charge":"+2","electronegativity":0.9,"electron_affinity":0.0,"first_ionization_energy":509.3,"atomic_radius":215,"group":2,"period":7,"block":"s"},
  {"element_name":"Actinium","symbol":"Ac","atomic_number":89,"atomic_mass":227.0,"ion_charge":"+3","electronegativity":1.1,"electron_affinity":50.0,"first_ionization_energy":499.0,"atomic_radius":195,"group":3,"period":7,"block":"d"},
  {"element_name":"Thorium","symbol":"Th","atomic_number":90,"atomic_mass":232.0377,"ion_charge":"+4","electronegativity":1.3,"electron_affinity":50.0,"first_ionization_energy":587.0,"atomic_radius":180,"group":null,"period":7,"block":"f"},
  {"element_name":"Protactinium","symbol":"Pa","atomic_number":91,"atomic_mass":231.03588,"ion_charge":"+5","electronegativity":1.5,"electron_affinity":50.0,"first_ionization_energy":568.0,"atomic_radius":180,"group":null,"period":7,"block":"f"},
  {"element_name":"Uranium","symbol":"U","atomic_number":92,"atomic_mass":238.02891,"ion_charge":"+6","electronegativity":1.38,"electron_affinity":50.0,"first_ionization_energy":597.6,"atomic_radius":175,"group":null,"period":7,"block":"f"},
  {"element_name":"Neptunium","symbol":"Np","atomic_number":93,"atomic_mass":237.0,"ion_charge":"+5","electronegativity":1.36,"electron_affinity":50.0,"first_ionization_energy":604.0,"atomic_radius":175,"group":null,"period":7,"block":"f"},
  {"element_name":"Plutonium","symbol":"Pu","atomic_number":94,"atomic_mass":244.0,"ion_charge":"+4","electronegativity":1.28,"electron_affinity":50.0,"first_ionization_energy":584.7,"atomic_radius":175,"group":null,"period":7,"block":"f"},
  {"element_name":"Americium","symbol":"Am","atomic_number":95,"atomic_mass":243.0,"ion_charge":"+3","electronegativity":1.3,"electron_affinity":50.0,"first_ionization_energy":578.0,"atomic_radius":175,"group":null,"period":7,"block":"f"},
  {"element_name":"Curium","symbol":"Cm","atomic_number":96,"atomic_mass":247.0,"ion_charge":"+3","electronegativity":1.3,"electron_affinity":50.0,"first_ionization_energy":581.0,"atomic_radius":175,"group":null,"period":7,"block":"f"},
  {"element_name":"Berkelium","symbol":"Bk","atomic_number":97,"atomic_mass":247.0,"ion_charge":"+3","electronegativity":1.3,"electron_affinity":50.0,"first_ionization_energy":601.0,"atomic_radius":175,"group":null,"period":7,"block":"f"},
  {"element_name":"Californium","symbol":"Cf","atomic_number":98,"atomic_mass":251.0,"ion_charge":"+3","electronegativity":1.3,"electron_affinity":50.0,"first_ionization_energy":608.0,"atomic_radius":175,"group":null,"period":7,"block":"f"},
  {"element_name":"Einsteinium","symbol":"Es","atomic_number":99,"atomic_mass":252.0,"ion_charge":"+3","electronegativity":1.3,"electron_affinity":50.0,"first_ionization_energy":619.0,"atomic_radius":175,"group":null,"period":7,"block":"f"},
  {"element_name":"Fermium","symbol":"Fm","atomic_number":100,"atomic_mass":257.0,"ion_charge":"+3","electronegativity":1.3,"electron_affinity":50.0,"first_ionization_energy":627.0,"atomic_radius":175,"group":null,"period":7,"block":"f"},
  {"element_name":"Mendelevium","symbol":"Md","atomic_number":101,"atomic_mass":258.0,"ion_charge":"+3","electronegativity":1.3,"electron_affinity":50.0,"first_ionization_energy":635.0,"atomic_radius":175,"group":null,"period":7,"block":"f"},
  {"element_name":"Nobelium","symbol":"No","atomic_number":102,"atomic_mass":259.0,"ion_charge":"+2","electronegativity":1.3,"electron_affinity":50.0,"first_ionization_energy":642.0,"atomic_radius":175,"group":null,"period":7,"block":"f"},
  {"element_name":"Lawrencium","symbol":"Lr","atomic_number":103,"atomic_mass":262.0,"ion_charge":"+3","electronegativity":1.3,"electron_affinity":50.0,"first_ionization_energy":470.0,"atomic_radius":175,"group":null,"period":7,"block":"f"},
  {"element_name":"Rutherfordium","symbol":"Rf","atomic_number":104,"atomic_mass":267.0,"ion_charge":"+4","electronegativity":1.3,"electron_affinity":50.0,"first_ionization_energy":580.0,"atomic_radius":175,"group":4,"period":7,"block":"d"},
  {"element_name":"Dubnium","symbol":"Db","atomic_number":105,"atomic_mass":270.0,"ion_charge":"+5","electronegativity":1.3,"electron_affinity":50.0,"first_ionization_energy":580.0,"atomic_radius":175,"group":5,"period":7,"block":"d"},
  {"element_name":"Seaborgium","symbol":"Sg","atomic_number":106,"atomic_mass":271.0,"ion_charge":"+6","electronegativity":1.3,"electron_affinity":50.0,"first_ionization_energy":580.0,"atomic_radius":175,"group":6,"period":7,"block":"d"},
  {"element_name":"Bohrium","symbol":"Bh","atomic_number":107,"atomic_mass":270.0,"ion_charge":"+7","electronegativity":1.3,"electron_affinity":50.0,"first_ionization_energy":580.0,"atomic_radius":175,"group":7,"period":7,"block":"d"},
  {"element_name":"Hassium","symbol":"Hs","atomic_number":108,"atomic_mass":277.0,"ion_charge":"+8","electronegativity":1.3,"electron_affinity":50.0,"first_ionization_energy":580.0,"atomic_radius":175,"group":8,"period":7,"block":"d"},
  {"element_name":"Meitnerium","symbol":"Mt","atomic_number":109,"atomic_mass":278.0,"ion_charge":"+9","electronegativity":1.3,"electron_affinity":50.0,"first_ionization_energy":580.0,"atomic_radius":175,"group":9,"period":7,"block":"d"},
  {"element_name":"Darmstadtium","symbol":"Ds","atomic_number":110,"atomic_mass":281.0,"ion_charge":"+10","electronegativity":1.3,"electron_affinity":50.0,"first_ionization_energy":580.0,"atomic_radius":175,"group":10,"period":7,"block":"d"},
  {"element_name":"Roentgenium","symbol":"Rg","atomic_number":111,"atomic_mass":282.0,"ion_charge":"+11","electronegativity":1.3,"electron_affinity":50.0,"first_ionization_energy":580.0,"atomic_radius":175,"group":11,"period":7,"block":"d"},
  {"element_name":"Copernicium","symbol":"Cn","atomic_number":112,"atomic_mass":285.0,"ion_charge":"+2","electronegativity":1.3,"electron_affinity":50.0,"first_ionization_energy":580.0,"atomic_radius":175,"group":12,"period":7,"block":"d"},
  {"element_name":"Nihonium","symbol":"Nh","atomic_number":113,"atomic_mass":286.0,"ion_charge":"+3","electronegativity":1.3,"electron_affinity":50.0,"first_ionization_energy":580.0,"atomic_radius":175,"group":13,"period":7,"block":"p"},
  {"element_name":"Flerovium","symbol":"Fl","atomic_number":114,"atomic_mass":289.0,"ion_charge":"+4","electronegativity":1.3,"electron_affinity":50.0,"first_ionization_energy":580.0,"atomic_radius":175,"group":14,"period":7,"block":"p"},
  {"element_name":"Moscovium","symbol":"Mc","atomic_number":115,"atomic_mass":288.0,"ion_charge":"+3","electronegativity":1.3,"electron_affinity":50.0,"first_ionization_energy":580.0,"atomic_radius":175,"group":15,"period":7,"block":"p"},
  {"element_name":"Livermorium","symbol":"Lv","atomic_number":116,"atomic_mass":293.0,"ion_charge":"+2","electronegativity":1.3,"electron_affinity":50.0,"first_ionization_energy":580.0,"atomic_radius":175,"group":16,"period":7,"block":"p"},
  {"element_name":"Tennessine","symbol":"Ts","atomic_number":117,"atomic_mass":294.0,"ion_charge":"+1","electronegativity":1.3,"electron_affinity":50.0,"first_ionization_energy":580.0,"atomic_radius":175,"group":17,"period":7,"block":"p"},
  {"element_name":"Oganesson","symbol":"Og","atomic_number":118,"atomic_mass":294.0,"ion_charge":"0","electronegativity":null,"electron_affinity":50.0,"first_ionization_energy":580.0,"atomic_radius":175,"group":18,"period":7,"block":"p"}
]